<?xml version="1.0" encoding="UTF-8"?>

<!-- generated on 2021-10-02 13:01:22 by Eclipse SUMO sumo Version 1.10.0
<configuration xmlns:xsi="http://www.w3.org/2001/XMLSchema-instance" xsi:noNamespaceSchemaLocation="http://sumo.dlr.de/xsd/sumoConfiguration.xsd">

    <input>
        <net-file value="grid.net.xml"/>
        <route-files value="grid.flows.xml"/>
        <additional-files value="grid_detectors.det.xml,grid.rerouter.xml"/>
    </input>

    <output>
        <output-prefix value="output/"/>
        <human-readable-time value="true"/>
        <fcd-output value="fcd-output.xml"/>
        <summary-output value="summary-output.xml"/>
        <tripinfo-output value="tripinfo-output.xml"/>
        <vehroute-output value="vehroute-output.xml"/>
        <collision-output value="collision-output.xml"/>
        <statistic-output value="statistic-output.xml"/>
    </output>

    <time>
        <begin value="0"/>
        <end value="-1"/>
        <step-length value="1"/>
    </time>

    <processing>
        <threads value="4"/>
        <lateral-resolution value="0.3"/>
        <collision.action value="teleport"/>
        <collision.stoptime value="50"/>
    </processing>

    <routing>
        <device.rerouting.probability value="-1"/>
        <device.rerouting.period value="0"/>
        <device.rerouting.pre-period value="60"/>
    </routing>

    <random_number>
        <random value="true"/>
    </random_number>

    <gui_only>
        <tracker-interval value="1"/>
    </gui_only>

</configuration>
-->

<fcd-export xmlns:xsi="http://www.w3.org/2001/XMLSchema-instance" xsi:noNamespaceSchemaLocation="http://sumo.dlr.de/xsd/fcd_file.xsd">
    <timestep time="00:00:00">
        <vehicle id="AD.0" x="5.10" y="595.20" angle="90.00" type="passenger" speed="0.00" pos="5.10" lane="left1A1_0" slope="0.00"/>
        <vehicle id="BC.0" x="5.10" y="95.20" angle="90.00" type="passenger" speed="0.00" pos="5.10" lane="left0A0_0" slope="0.00"/>
        <vehicle id="CB.0" x="944.90" y="604.80" angle="270.00" type="passenger" speed="0.00" pos="5.10" lane="right1D1_0" slope="0.00"/>
        <vehicle id="DA.0" x="944.90" y="104.80" angle="270.00" type="passenger" speed="0.00" pos="5.10" lane="right0D0_0" slope="0.00"/>
        <vehicle id="EL.0" x="95.20" y="694.90" angle="180.00" type="passenger" speed="0.00" pos="5.10" lane="top0A1_0" slope="0.00"/>
        <vehicle id="FD.0" x="345.20" y="694.90" angle="180.00" type="passenger" speed="0.00" pos="5.10" lane="top1B1_0" slope="0.00"/>
        <vehicle id="GB.0" x="595.20" y="694.90" angle="180.00" type="passenger" speed="0.00" pos="5.10" lane="top2C1_0" slope="0.00"/>
        <vehicle id="HI.0" x="845.20" y="694.90" angle="180.00" type="passenger" speed="0.00" pos="5.10" lane="top3D1_0" slope="0.00"/>
        <vehicle id="IH.0" x="104.80" y="5.10" angle="0.00" type="passenger" speed="0.00" pos="5.10" lane="bottom0A0_0" slope="0.00"/>
        <vehicle id="JC.0" x="354.80" y="5.10" angle="0.00" type="passenger" speed="0.00" pos="5.10" lane="bottom1B0_0" slope="0.00"/>
        <vehicle id="KA.0" x="604.80" y="5.10" angle="0.00" type="passenger" speed="0.00" pos="5.10" lane="bottom2C0_0" slope="0.00"/>
        <vehicle id="LE.0" x="854.80" y="5.10" angle="0.00" type="passenger" speed="0.00" pos="5.10" lane="bottom3D0_0" slope="0.00"/>
    </timestep>
    <timestep time="00:00:01">
        <vehicle id="AD.0" x="12.86" y="595.20" angle="90.00" type="passenger" speed="7.76" pos="12.86" lane="left1A1_0" slope="0.00"/>
        <vehicle id="BC.0" x="12.86" y="95.20" angle="90.00" type="passenger" speed="7.76" pos="12.86" lane="left0A0_0" slope="0.00"/>
        <vehicle id="CB.0" x="937.14" y="604.80" angle="270.00" type="passenger" speed="7.76" pos="12.86" lane="right1D1_0" slope="0.00"/>
        <vehicle id="DA.0" x="937.14" y="104.80" angle="270.00" type="passenger" speed="7.76" pos="12.86" lane="right0D0_0" slope="0.00"/>
        <vehicle id="EL.0" x="96.20" y="687.14" angle="175.52" type="passenger" speed="7.76" pos="12.86" lane="top0A1_0" slope="0.00"/>
        <vehicle id="FD.0" x="345.20" y="687.14" angle="180.00" type="passenger" speed="7.76" pos="12.86" lane="top1B1_0" slope="0.00"/>
        <vehicle id="GB.0" x="595.20" y="687.14" angle="180.00" type="passenger" speed="7.76" pos="12.86" lane="top2C1_0" slope="0.00"/>
        <vehicle id="HI.0" x="845.20" y="687.14" angle="180.00" type="passenger" speed="7.76" pos="12.86" lane="top3D1_0" slope="0.00"/>
        <vehicle id="IH.0" x="104.80" y="12.86" angle="0.00" type="passenger" speed="7.76" pos="12.86" lane="bottom0A0_0" slope="0.00"/>
        <vehicle id="JC.0" x="354.80" y="12.86" angle="0.00" type="passenger" speed="7.76" pos="12.86" lane="bottom1B0_0" slope="0.00"/>
        <vehicle id="KA.0" x="604.80" y="12.86" angle="0.00" type="passenger" speed="7.76" pos="12.86" lane="bottom2C0_0" slope="0.00"/>
        <vehicle id="LE.0" x="854.80" y="12.86" angle="0.00" type="passenger" speed="7.76" pos="12.86" lane="bottom3D0_0" slope="0.00"/>
    </timestep>
    <timestep time="00:00:02">
        <vehicle id="AD.0" x="26.71" y="595.20" angle="90.00" type="passenger" speed="13.85" pos="26.71" lane="left1A1_0" slope="0.00"/>
        <vehicle id="BC.0" x="26.71" y="95.20" angle="90.00" type="passenger" speed="13.85" pos="26.71" lane="left0A0_0" slope="0.00"/>
        <vehicle id="CB.0" x="923.29" y="604.80" angle="270.00" type="passenger" speed="13.85" pos="26.71" lane="right1D1_0" slope="0.00"/>
        <vehicle id="DA.0" x="923.29" y="104.80" angle="270.00" type="passenger" speed="13.85" pos="26.71" lane="right0D0_0" slope="0.00"/>
        <vehicle id="EL.0" x="97.20" y="673.29" angle="176.96" type="passenger" speed="13.85" pos="26.71" lane="top0A1_1" slope="0.00"/>
        <vehicle id="FD.0" x="345.20" y="673.29" angle="180.00" type="passenger" speed="13.85" pos="26.71" lane="top1B1_0" slope="0.00"/>
        <vehicle id="FK.0" x="345.20" y="694.90" angle="180.00" type="passenger" speed="0.00" pos="5.10" lane="top1B1_0" slope="0.00"/>
        <vehicle id="GB.0" x="595.20" y="673.29" angle="180.00" type="passenger" speed="13.85" pos="26.71" lane="top2C1_0" slope="0.00"/>
        <vehicle id="GJ.0" x="595.20" y="694.90" angle="180.00" type="passenger" speed="0.00" pos="5.10" lane="top2C1_0" slope="0.00"/>
        <vehicle id="HI.0" x="845.20" y="673.29" angle="180.00" type="passenger" speed="13.85" pos="26.71" lane="top3D1_0" slope="0.00"/>
        <vehicle id="IH.0" x="104.80" y="26.71" angle="0.00" type="passenger" speed="13.85" pos="26.71" lane="bottom0A0_0" slope="0.00"/>
        <vehicle id="JC.0" x="354.80" y="26.71" angle="0.00" type="passenger" speed="13.85" pos="26.71" lane="bottom1B0_0" slope="0.00"/>
        <vehicle id="JG.0" x="354.80" y="5.10" angle="0.00" type="passenger" speed="0.00" pos="5.10" lane="bottom1B0_0" slope="0.00"/>
        <vehicle id="KA.0" x="604.80" y="26.71" angle="0.00" type="passenger" speed="13.85" pos="26.71" lane="bottom2C0_0" slope="0.00"/>
        <vehicle id="KF.0" x="604.80" y="5.10" angle="0.00" type="passenger" speed="0.00" pos="5.10" lane="bottom2C0_0" slope="0.00"/>
        <vehicle id="LE.0" x="854.80" y="26.71" angle="0.00" type="passenger" speed="13.85" pos="26.71" lane="bottom3D0_0" slope="0.00"/>
    </timestep>
</fcd-export>
